# vtk DataFile Version 3.0
Mesh-grid-irregular (Substrate Surface)
ASCII
DATASET RECTILINEAR_GRID
DIMENSIONS 50 50 1
X_COORDINATES 50 double
0.0 0.0204082 0.0408163 0.0612245 0.0816327 0.102041 0.122449 0.142857 0.163265 0.183673 0.204082 0.22449 0.244898 0.265306 0.285714 0.306122 0.326531 0.346939 0.367347 0.387755 0.408163 0.428571 0.44898 0.469388 0.489796 0.510204 0.530612 0.55102 0.571429 0.591837 0.612245 0.632653 0.653061 0.673469 0.693878 0.714286 0.734694 0.755102 0.77551 0.795918 0.816327 0.836735 0.857143 0.877551 0.897959 0.918367 0.938776 0.959184 0.979592 1.0
Y_COORDINATES 50 double
0.0 0.0204082 0.0408163 0.0612245 0.0816327 0.102041 0.122449 0.142857 0.163265 0.183673 0.204082 0.22449 0.244898 0.265306 0.285714 0.306122 0.326531 0.346939 0.367347 0.387755 0.408163 0.428571 0.44898 0.469388 0.489796 0.510204 0.530612 0.55102 0.571429 0.591837 0.612245 0.632653 0.653061 0.673469 0.693878 0.714286 0.734694 0.755102 0.77551 0.795918 0.816327 0.836735 0.857143 0.877551 0.897959 0.918367 0.938776 0.959184 0.979592 1.0
Z_COORDINATES 1 double
0
POINT_DATA 2500
SCALARS mycomponent float
LOOKUP_TABLE default
0.143588 0.11341 0.104264 0.119749 0.148021 0.195553 0.209402 0.132308 0.0634601 0.0574183 0.0550705 0.0341862 0.0239724 0.0343367 0.0490282 0.0629045 0.0890553 0.135098 0.157703 0.144812 0.15334 0.192826 0.209467 0.199057 0.183292 0.162792 0.118336 0.0504828 -0.0260269 -0.111403 -0.208102 -0.309079 -0.342946 -0.330114 -0.360803 -0.413487 -0.443082 -0.448882 -0.39621 -0.305302 -0.214608 -0.123465 -0.0521522 0.0089 0.0655394 0.125944 0.213505 0.305039 0.376121 0.434041 0.176364 0.124633 0.100831 0.113464 0.134145 0.145236 0.140349 0.10428 0.0652967 0.0360557 0.0129976 -0.00588058 -0.00689152 0.0213186 0.0405548 0.0350828 0.0467763 0.0896392 0.111711 0.100118 0.112307 0.158656 0.171984 0.146425 0.124065 0.106233 0.0472187 -0.0509425 -0.12825 -0.188522 -0.262683 -0.34097 -0.341474 -0.288635 -0.295191 -0.332319 -0.329 -0.296585 -0.233481 -0.149515 -0.0731807 0.00218122 0.0843729 0.158206 0.17992 0.197852 0.298438 0.403306 0.432723 0.410474 0.192203 0.116851 0.080368 0.0964003 0.11928 0.110877 0.0963445 0.0866633 0.0674071 0.0251606 -0.00563648 -0.0107612 0.00336841 0.0444977 0.06808 0.0533521 0.0597247 0.105537 0.131645 0.124834 0.137926 0.180518 0.187953 0.154407 0.124816 0.100622 0.0309098 -0.0818141 -0.163497 -0.218575 -0.277122 -0.331869 -0.323988 -0.272845 -0.273892 -0.300173 -0.277419 -0.221301 -0.14448 -0.0538791 0.0214576 0.0915069 0.174534 0.247192 0.249525 0.24404 0.340335 0.439476 0.440997 0.374866 0.191858 0.0808864 0.030375 0.0610842 0.103532 0.0990546 0.0882978 0.0903567 0.079188 0.0309421 0.00609098 0.035703 0.0778968 0.127504 0.155277 0.142019 0.154429 0.21397 0.251957 0.254705 0.26534 0.290714 0.289356 0.257752 0.219632 0.175736 0.0997973 -0.00661713 -0.0992649 -0.178889 -0.231396 -0.260089 -0.282486 -0.298586 -0.325016 -0.350087 -0.327235 -0.265941 -0.166759 -0.0453191 0.0507108 0.131539 0.200699 0.250988 0.255084 0.252492 0.319736 0.385741 0.377476 0.316727 0.17268 0.0474733 -0.00725038 0.0325196 0.0864384 0.0876407 0.0795426 0.078591 0.0688291 0.0323878 0.0248657 0.0792162 0.138958 0.190979 0.222682 0.219591 0.242011 0.310479 0.357232 0.370011 0.376833 0.380988 0.368971 0.339969 0.294227 0.231717 0.151982 0.0555896 -0.0445176 -0.145501 -0.192633 -0.198272 -0.243738 -0.312738 -0.354298 -0.371224 -0.347932 -0.286522 -0.174332 -0.0335239 0.0769608 0.165829 0.222046 0.253047 0.261313 0.26364 0.302022 0.335452 0.320966 0.271384 0.122194 0.0436251 0.0078948 0.0310405 0.059397 0.0483468 0.0265039 -0.00353355 -0.0199852 -0.00719269 0.0191757 0.0562699 0.0984401 0.145545 0.184012 0.205447 0.239797 0.297872 0.340636 0.362208 0.364848 0.347624 0.321124 0.286385 0.235366 0.167828 0.0851787 -0.0118883 -0.106221 -0.195293 -0.226906 -0.212809 -0.229322 -0.261996 -0.266606 -0.247843 -0.20201 -0.131376 -0.0357127 0.0739467 0.164877 0.24193 0.302111 0.341677 0.340987 0.329242 0.362745 0.390268 0.359635 0.28641 0.0793604 0.0480204 0.0336995 0.045446 0.0529616 0.0293533 -0.00331657 -0.0477522 -0.0615519 -0.00634458 0.0460305 0.0628817 0.0832634 0.118564 0.155048 0.189704 0.226918 0.269147 0.30291 0.327629 0.327193 0.29805 0.263014 0.22397 0.170351 0.101872 0.0176605 -0.0812759 -0.166914 -0.238215 -0.261332 -0.243475 -0.227682 -0.208061 -0.173125 -0.12465 -0.0643217 0.00654067 0.084661 0.165809 0.234593 0.295348 0.357326 0.403866 0.390969 0.362124 0.390292 0.413269 0.369518 0.277388 0.0894945 0.0675846 0.0650371 0.093813 0.11379 0.0836278 0.0534824 0.045323 0.0617603 0.120711 0.16923 0.180407 0.187718 0.200042 0.211235 0.219447 0.233398 0.256336 0.277322 0.296157 0.298825 0.282956 0.258482 0.226359 0.176938 0.109929 0.0223025 -0.0845028 -0.166769 -0.226077 -0.262763 -0.275771 -0.249758 -0.192166 -0.139852 -0.0885083 -0.0436088 0.00234876 0.0805941 0.172241 0.233846 0.280465 0.335454 0.375793 0.350235 0.305486 0.313931 0.321294 0.277412 0.197231 0.059091 0.0445019 0.0515602 0.0938728 0.125756 0.0968684 0.0763211 0.105242 0.150045 0.206483 0.251566 0.271951 0.27966 0.274823 0.268722 0.263663 0.266454 0.28095 0.2915 0.296065 0.292284 0.279953 0.255566 0.218973 0.166093 0.0967506 0.016616 -0.0733512 -0.141948 -0.191168 -0.237743 -0.274884 -0.242457 -0.158504 -0.100119 -0.0562731 -0.0265416 0.000413576 0.0760895 0.171951 0.226211 0.25811 0.289426 0.303694 0.264812 0.210071 0.199388 0.188979 0.139014 0.0613572 -0.0898262 -0.0841566 -0.0669282 -0.0295396 -0.000910778 -0.0163032 -0.0196861 0.025559 0.0841066 0.145952 0.205595 0.262778 0.297741 0.295149 0.300524 0.327965 0.359086 0.395241 0.405652 0.38317 0.347932 0.301973 0.241529 0.165935 0.0863936 0.00312908 -0.0437208 -0.0559361 -0.0856502 -0.129457 -0.171787 -0.207032 -0.166713 -0.072493 -0.0213164 0.00534854 0.0359713 0.070465 0.129452 0.19728 0.241034 0.26098 0.234392 0.180801 0.12544 0.0724498 0.0519983 0.0258364 -0.0497211 -0.161626 -0.193914 -0.171355 -0.148444 -0.122901 -0.102448 -0.101243 -0.0871622 -0.0362023 0.0248082 0.0851291 0.151345 0.233526 0.286316 0.281167 0.295625 0.356932 0.409905 0.447978 0.448485 0.403457 0.347118 0.283268 0.206117 0.114787 0.0237147 -0.0668476 -0.0930444 -0.0581634 -0.0600652 -0.0921267 -0.114796 -0.126212 -0.0794404 0.0079229 0.0506491 0.0674511 0.0965845 0.132487 0.180083 0.228486 0.251608 0.246542 0.18042 0.0875901 0.025785 -0.0243031 -0.0610801 -0.109749 -0.206441 -0.340341 -0.177776 -0.143664 -0.120935 -0.11482 -0.107838 -0.0870309 -0.0560541 -0.0119557 0.0359037 0.0809464 0.133675 0.208657 0.250068 0.221595 0.228287 0.313088 0.362124 0.34957 0.313602 0.255242 0.204236 0.165464 0.122631 0.0751306 0.010886 -0.0707422 -0.110681 -0.110529 -0.115667 -0.122452 -0.0989142 -0.0499026 0.00192243 0.0559809 0.0944389 0.121044 0.137611 0.15177 0.206211 0.267891 0.250573 0.190562 0.131873 0.0706987 0.0248895 -0.022235 -0.0914708 -0.177587 -0.281354 -0.40252 -0.125145 -0.0980028 -0.0835445 -0.0894106 -0.0900139 -0.062311 -0.0263584 0.0108551 0.0470309 0.0763641 0.113538 0.174737 0.205832 0.171755 0.175954 0.263825 0.302516 0.257296 0.204949 0.153684 0.118954 0.104994 0.0894556 0.0716926 0.0277969 -0.0432475 -0.0946393 -0.126354 -0.132863 -0.114212 -0.0605309 0.0213388 0.0750548 0.109265 0.144929 0.176997 0.186548 0.187107 0.234782 0.289226 0.241435 0.148261 0.102204 0.0692814 0.0271036 -0.0297919 -0.127458 -0.241056 -0.344874 -0.446581 -0.0414384 -0.0537945 -0.0610736 -0.0637601 -0.0602443 -0.0500791 -0.0307986 0.00390977 0.0356103 0.0504897 0.0721099 0.115314 0.14546 0.143623 0.160295 0.218856 0.244195 0.214238 0.190205 0.181722 0.175919 0.173205 0.157037 0.126143 0.079277 0.0162253 -0.0331187 -0.0680959 -0.0617406 -0.017583 0.0313561 0.0861612 0.138666 0.187898 0.220313 0.239524 0.253827 0.262605 0.274207 0.275419 0.219587 0.139252 0.100961 0.0694834 0.00183652 -0.088244 -0.203304 -0.323044 -0.418865 -0.499326 0.000523232 -0.0330398 -0.050892 -0.0492316 -0.0408112 -0.0387763 -0.0269777 0.00842731 0.0414987 0.0552531 0.0761766 0.118451 0.154761 0.17419 0.195938 0.22887 0.240532 0.218941 0.209218 0.220248 0.229426 0.236121 0.219505 0.177174 0.12832 0.0734161 0.0318803 0.00433913 0.0167278 0.0648523 0.102918 0.135613 0.179293 0.229743 0.269439 0.300226 0.322827 0.333121 0.31368 0.271251 0.211578 0.144322 0.106009 0.0672083 -0.0204397 -0.133852 -0.262372 -0.387778 -0.479143 -0.545736 -0.03471 -0.0495045 -0.0565592 -0.0557486 -0.0475051 -0.0331682 -0.00889854 0.0306389 0.0727237 0.107665 0.153599 0.225918 0.279776 0.295232 0.307567 0.329149 0.326943 0.289362 0.259682 0.244325 0.243966 0.262296 0.25347 0.213147 0.169275 0.122541 0.0952552 0.0870566 0.0897536 0.103514 0.129282 0.164941 0.186951 0.204422 0.270686 0.362423 0.398614 0.394514 0.356112 0.291905 0.228328 0.163379 0.112367 0.0573042 -0.0338383 -0.148153 -0.287901 -0.4254 -0.521082 -0.586792 -0.0579288 -0.0739295 -0.0740185 -0.0553837 -0.0274365 0.00184883 0.038118 0.0854207 0.134742 0.178325 0.233485 0.317894 0.375338 0.379489 0.380294 0.393767 0.385492 0.345411 0.304951 0.266652 0.251797 0.266981 0.255465 0.212035 0.171586 0.135028 0.118652 0.121886 0.129139 0.141031 0.159833 0.184267 0.197946 0.210244 0.283528 0.388935 0.421945 0.406197 0.367178 0.307039 0.243594 0.175994 0.117276 0.0519534 -0.0483608 -0.170652 -0.315441 -0.455342 -0.550498 -0.61284 -0.046885 -0.104995 -0.108942 -0.0414277 0.0396516 0.0854325 0.129717 0.188516 0.239837 0.268577 0.304384 0.368717 0.406688 0.391895 0.380451 0.389927 0.388309 0.369819 0.337747 0.288998 0.256499 0.246866 0.216171 0.160015 0.118973 0.0942542 0.0800356 0.0769986 0.112803 0.181193 0.201249 0.186642 0.214073 0.270004 0.318034 0.35765 0.361892 0.342089 0.328742 0.308041 0.247851 0.168223 0.11241 0.049754 -0.0718059 -0.218375 -0.36116 -0.489032 -0.574069 -0.62466 -0.0486445 -0.109242 -0.107803 -0.0234058 0.0739035 0.123167 0.171976 0.246861 0.30813 0.330963 0.355537 0.404905 0.430648 0.410798 0.390658 0.382149 0.374223 0.368284 0.343528 0.293297 0.251396 0.223275 0.178287 0.11261 0.0773723 0.0742238 0.0816055 0.100203 0.157289 0.245783 0.269705 0.24661 0.282822 0.355823 0.385549 0.385087 0.365926 0.33446 0.326589 0.323164 0.282368 0.219883 0.159842 0.0829312 -0.0505009 -0.20494 -0.339403 -0.456051 -0.541435 -0.599623 -0.0663456 -0.0702176 -0.0497794 0.00320955 0.06109 0.0939543 0.141898 0.239915 0.323742 0.35544 0.382941 0.428137 0.454091 0.448533 0.423842 0.376649 0.341957 0.331916 0.309921 0.26896 0.229669 0.195104 0.144309 0.0733093 0.0535841 0.0875171 0.146288 0.228684 0.294974 0.346546 0.377355 0.391745 0.426912 0.473691 0.499206 0.504934 0.471686 0.414686 0.379718 0.358105 0.36076 0.359889 0.284388 0.166928 0.0354382 -0.102732 -0.221355 -0.33069 -0.434993 -0.533015 -0.131392 -0.100567 -0.0642686 -0.0217909 0.0244364 0.066951 0.127002 0.231045 0.321267 0.36293 0.397361 0.441683 0.471282 0.481989 0.460896 0.392967 0.349088 0.351218 0.339139 0.302956 0.260653 0.21347 0.159105 0.095306 0.0812181 0.118835 0.194474 0.305706 0.373069 0.402341 0.43131 0.458512 0.494352 0.533463 0.550312 0.547231 0.515002 0.463747 0.423623 0.393309 0.400935 0.408354 0.323382 0.192139 0.0617909 -0.0680325 -0.176282 -0.271326 -0.356705 -0.43138 -0.253921 -0.221251 -0.174305 -0.112173 -0.0378554 0.0496034 0.139515 0.228339 0.304154 0.356046 0.401108 0.447322 0.48358 0.511642 0.504245 0.439823 0.411039 0.448546 0.456349 0.417932 0.363437 0.293065 0.235894 0.193934 0.171221 0.167895 0.214312 0.307791 0.367599 0.398041 0.413828 0.418545 0.458377 0.517478 0.517768 0.481001 0.467412 0.462685 0.447975 0.424004 0.38523 0.328926 0.243418 0.135149 0.00315172 -0.131289 -0.23687 -0.308165 -0.324439 -0.291932 -0.345173 -0.304682 -0.245549 -0.164869 -0.072277 0.0308279 0.125771 0.196514 0.258357 0.316175 0.370193 0.423516 0.46649 0.501407 0.496495 0.427449 0.396772 0.437656 0.449023 0.413396 0.364232 0.301844 0.259383 0.239802 0.230338 0.230593 0.271768 0.351606 0.402922 0.429068 0.437772 0.433887 0.471324 0.533104 0.538345 0.509657 0.511856 0.526423 0.521356 0.499572 0.453169 0.383658 0.287274 0.171773 0.0444802 -0.0795167 -0.178468 -0.238024 -0.228251 -0.158132 -0.398042 -0.340883 -0.267141 -0.170135 -0.0721872 0.0109202 0.0810474 0.130859 0.179926 0.239055 0.30025 0.366562 0.416247 0.446205 0.430478 0.345937 0.29243 0.298828 0.294467 0.267547 0.244022 0.225587 0.217733 0.22043 0.250423 0.308363 0.374832 0.448707 0.490903 0.504784 0.513598 0.518554 0.546087 0.589512 0.625295 0.654539 0.668686 0.669278 0.653786 0.628066 0.621357 0.600711 0.480661 0.320654 0.205348 0.109842 0.0226526 -0.0392263 -0.0553255 -0.0317622 -0.443506 -0.379394 -0.303784 -0.212632 -0.119435 -0.0323243 0.0447503 0.104429 0.158537 0.21046 0.266772 0.338428 0.389848 0.412878 0.38887 0.296344 0.23312 0.225952 0.218854 0.202957 0.19875 0.208512 0.223133 0.241365 0.284405 0.353032 0.417897 0.478615 0.518386 0.539255 0.559266 0.577956 0.601979 0.630118 0.662142 0.69395 0.703781 0.698826 0.692537 0.684222 0.693585 0.685866 0.562173 0.394128 0.288739 0.207162 0.122939 0.0584627 0.0360606 0.0490742 -0.482464 -0.421679 -0.3575 -0.295263 -0.217017 -0.0999134 0.0180252 0.119726 0.197403 0.233382 0.27232 0.341248 0.389262 0.403668 0.37435 0.281836 0.223016 0.225037 0.229224 0.226599 0.234599 0.255224 0.279206 0.306029 0.333981 0.362967 0.397471 0.437411 0.481759 0.529841 0.572436 0.609574 0.636947 0.653503 0.645382 0.620817 0.609509 0.608668 0.632549 0.664021 0.663671 0.629885 0.52364 0.386377 0.288583 0.205354 0.114767 0.0477109 0.0407189 0.0828753 -0.471338 -0.40681 -0.343584 -0.287829 -0.21885 -0.115156 -0.00301581 0.113668 0.203403 0.236395 0.266792 0.322011 0.358872 0.366716 0.340207 0.263902 0.21931 0.229782 0.243135 0.251963 0.265155 0.283765 0.298248 0.307499 0.323679 0.347162 0.376216 0.410893 0.454456 0.505461 0.545038 0.574816 0.600587 0.618021 0.596252 0.54937 0.52496 0.517392 0.541857 0.578246 0.575406 0.541318 0.462244 0.357537 0.255963 0.161565 0.0896188 0.0477881 0.0536291 0.10187 -0.411076 -0.33655 -0.264715 -0.194534 -0.129564 -0.0799672 -0.0175533 0.0880681 0.178562 0.220842 0.25111 0.282266 0.300407 0.302875 0.28643 0.24189 0.221059 0.239424 0.25983 0.27795 0.289484 0.293979 0.281407 0.248834 0.256798 0.307404 0.354675 0.398638 0.436233 0.467094 0.479702 0.478238 0.497832 0.527792 0.517818 0.481499 0.451832 0.42729 0.42444 0.432765 0.4338 0.423024 0.379333 0.30801 0.192174 0.0782599 0.0487671 0.0584193 0.0744736 0.106649 -0.316896 -0.252099 -0.190057 -0.129265 -0.0748553 -0.0389343 0.00978456 0.102236 0.184083 0.22799 0.254904 0.271271 0.266102 0.229465 0.199592 0.185905 0.19127 0.221496 0.244988 0.256259 0.262363 0.264374 0.247739 0.2087 0.225577 0.301156 0.358353 0.397723 0.428114 0.449459 0.460502 0.463672 0.483881 0.513283 0.516857 0.500998 0.47074 0.43352 0.425123 0.428664 0.414117 0.384259 0.330339 0.255287 0.141945 0.0399194 0.0449898 0.0883097 0.108004 0.122499 -0.195197 -0.156798 -0.120154 -0.088951 -0.0508427 0.00513513 0.0700223 0.146602 0.211377 0.251001 0.272459 0.282004 0.250482 0.148602 0.0866026 0.101877 0.134524 0.179604 0.202759 0.193752 0.191872 0.202346 0.202108 0.187423 0.227479 0.324809 0.384184 0.407122 0.42908 0.449668 0.480752 0.519257 0.545717 0.563045 0.581109 0.593615 0.567581 0.522714 0.526407 0.543147 0.496439 0.412132 0.309178 0.198749 0.102926 0.0401951 0.0722016 0.132758 0.150065 0.145555 -0.151977 -0.124032 -0.101877 -0.0926015 -0.0724365 -0.0176665 0.0447893 0.103926 0.157096 0.203936 0.23087 0.234287 0.200507 0.106256 0.0506258 0.0678507 0.103054 0.152507 0.177613 0.16587 0.174232 0.211193 0.235893 0.244075 0.286959 0.366358 0.40888 0.416156 0.429044 0.447238 0.490818 0.552537 0.578503 0.578811 0.585955 0.592674 0.579263 0.554835 0.552031 0.547376 0.481276 0.377711 0.255618 0.134655 0.0628512 0.0327789 0.0691979 0.124068 0.13721 0.126614 -0.169464 -0.141221 -0.125654 -0.131525 -0.129477 -0.0919729 -0.0460517 -0.00501783 0.0407704 0.102468 0.142206 0.139761 0.121684 0.089802 0.068855 0.0660602 0.084139 0.129896 0.15932 0.159722 0.192834 0.2694 0.325704 0.356749 0.387294 0.418024 0.429638 0.42319 0.427485 0.442675 0.493626 0.569948 0.591331 0.572158 0.549826 0.5251 0.53014 0.546596 0.523921 0.472928 0.39658 0.29932 0.181248 0.0695731 0.0269453 0.0242537 0.0469786 0.07773 0.0852668 0.0789566 -0.149442 -0.142211 -0.137868 -0.13958 -0.136763 -0.121131 -0.0964986 -0.0629611 -0.021868 0.0355592 0.067738 0.0489838 0.0228631 0.00110328 -0.0177817 -0.0367849 -0.0275899 0.021447 0.0652756 0.0933806 0.148432 0.23842 0.309832 0.359007 0.388228 0.397349 0.403132 0.405879 0.414075 0.429336 0.488768 0.579994 0.612505 0.60101 0.577216 0.545282 0.551767 0.572753 0.544257 0.480961 0.386825 0.273574 0.163368 0.0708519 0.0449507 0.0555689 0.0779148 0.103825 0.11135 0.107087 -0.110523 -0.135577 -0.144246 -0.130079 -0.114735 -0.121771 -0.119466 -0.086223 -0.0482437 -0.00803882 0.00350115 -0.036706 -0.0848511 -0.129915 -0.166884 -0.197294 -0.19084 -0.135535 -0.0727208 -0.0089163 0.0634754 0.14625 0.219733 0.283128 0.31811 0.323874 0.340819 0.368379 0.389537 0.407871 0.475053 0.57809 0.630841 0.645202 0.639487 0.617833 0.614044 0.614059 0.588727 0.536114 0.420566 0.278654 0.181814 0.117632 0.0997687 0.112439 0.141068 0.17285 0.1831 0.179223 -0.116795 -0.136331 -0.149095 -0.154609 -0.154493 -0.151229 -0.139804 -0.115089 -0.0865207 -0.0506689 -0.0399236 -0.0759137 -0.120206 -0.165562 -0.194783 -0.202267 -0.184787 -0.137758 -0.0860778 -0.0339654 0.022802 0.0845257 0.151551 0.225413 0.262314 0.260625 0.277473 0.311985 0.340171 0.365244 0.42895 0.520826 0.570662 0.588913 0.59764 0.595629 0.590994 0.578562 0.548508 0.493871 0.370563 0.224069 0.149705 0.116972 0.113441 0.129315 0.145596 0.159195 0.157798 0.145111 -0.152442 -0.142575 -0.151561 -0.193579 -0.22107 -0.185477 -0.144881 -0.133168 -0.118644 -0.0824933 -0.0631084 -0.0798495 -0.105114 -0.137785 -0.145184 -0.111468 -0.0766267 -0.0479863 -0.0253042 -0.0109989 0.0114615 0.0431909 0.0983521 0.18057 0.219193 0.211736 0.223108 0.252625 0.28529 0.322082 0.375399 0.439912 0.472061 0.481006 0.500665 0.521766 0.519813 0.498247 0.459401 0.396905 0.273959 0.136233 0.088246 0.0866546 0.0978401 0.114492 0.106981 0.0892818 0.0696921 0.0457579 -0.178533 -0.151191 -0.142982 -0.168636 -0.178699 -0.118438 -0.0635917 -0.0620224 -0.065824 -0.053357 -0.0501707 -0.0673616 -0.0874396 -0.109589 -0.112398 -0.0840256 -0.0606999 -0.051876 -0.0366413 -0.0114593 0.0124377 0.0313616 0.0886223 0.190495 0.246625 0.253998 0.267122 0.286283 0.328918 0.391855 0.4424 0.48201 0.50174 0.50586 0.51767 0.529418 0.517542 0.486545 0.445124 0.381908 0.244957 0.0901404 0.043793 0.0486297 0.0502382 0.0515705 0.0284376 0.00181135 -0.00759184 -0.00594917 -0.20124 -0.165341 -0.134779 -0.11715 -0.0868528 -0.00782838 0.0528146 0.0485292 0.0268365 0.00384841 -0.0218181 -0.0494857 -0.0716443 -0.0848509 -0.0924768 -0.0941081 -0.0969144 -0.106959 -0.086997 -0.0259887 0.0197455 0.0397061 0.106016 0.226971 0.305937 0.339851 0.358639 0.364024 0.419626 0.51704 0.569838 0.587061 0.597846 0.599617 0.592163 0.574695 0.543254 0.499745 0.45743 0.397784 0.246778 0.0711595 0.0156827 0.0131373 -0.00644392 -0.0276314 -0.0611074 -0.0858642 -0.0756631 -0.0383482 -0.225501 -0.206052 -0.182099 -0.158201 -0.118928 -0.0374016 0.0274433 0.0365974 0.0200642 -0.0191121 -0.0592497 -0.0899203 -0.113039 -0.126494 -0.136696 -0.145144 -0.153784 -0.168515 -0.145658 -0.0724826 -0.00946832 0.0344439 0.100702 0.193589 0.266781 0.318888 0.341628 0.337876 0.406249 0.534502 0.597258 0.608539 0.620812 0.626612 0.607408 0.566203 0.502542 0.424695 0.371293 0.320023 0.206522 0.0808696 0.0492107 0.0575771 0.0448596 0.0246042 -0.0107711 -0.0478296 -0.0701415 -0.0826178 -0.24412 -0.249074 -0.242248 -0.226174 -0.192242 -0.122223 -0.0605157 -0.0320971 -0.0336188 -0.077653 -0.123712 -0.154554 -0.178687 -0.196342 -0.208178 -0.214072 -0.217593 -0.224206 -0.195688 -0.12175 -0.0445045 0.0327721 0.0947755 0.13928 0.191164 0.251302 0.277179 0.272218 0.350255 0.497291 0.569293 0.582566 0.600537 0.612401 0.584449 0.522276 0.424151 0.306564 0.234871 0.188285 0.134589 0.0910489 0.0933827 0.114725 0.11829 0.107635 0.0723922 0.0161085 -0.060355 -0.157245 -0.223491 -0.211315 -0.188624 -0.152098 -0.112809 -0.0767037 -0.0494697 -0.0329942 -0.0395604 -0.0846181 -0.131181 -0.165508 -0.188764 -0.196748 -0.203664 -0.216437 -0.213415 -0.190747 -0.145531 -0.074634 0.000739284 0.0797974 0.139322 0.176725 0.212511 0.247268 0.276993 0.302986 0.373434 0.480242 0.530202 0.534988 0.546794 0.554658 0.51717 0.44285 0.342438 0.224508 0.123136 0.0395963 0.00270824 -0.00529123 -0.0109238 -0.014267 -0.0244803 -0.0481842 -0.103362 -0.179606 -0.269029 -0.373974 -0.199204 -0.152763 -0.102703 -0.0403782 0.00522814 0.00563038 -0.00777488 -0.0179128 -0.0389953 -0.079501 -0.120816 -0.158257 -0.181898 -0.183091 -0.18716 -0.207788 -0.195146 -0.134276 -0.0659223 0.0048492 0.0745476 0.14297 0.20133 0.249377 0.271222 0.266099 0.296435 0.360577 0.416548 0.46435 0.480894 0.471383 0.471023 0.469927 0.423526 0.343027 0.256121 0.157581 0.0303653 -0.0980366 -0.139009 -0.138909 -0.170477 -0.212194 -0.249386 -0.296171 -0.377318 -0.470051 -0.551056 -0.627289 -0.261635 -0.202383 -0.148248 -0.0969586 -0.0560714 -0.0282533 -0.0226524 -0.0533951 -0.0901004 -0.116818 -0.145361 -0.178452 -0.214812 -0.258141 -0.28887 -0.306204 -0.280686 -0.199974 -0.106221 -0.00334101 0.0880343 0.165125 0.227957 0.276978 0.290071 0.266244 0.279162 0.327493 0.383303 0.443831 0.452366 0.419249 0.405768 0.398458 0.344287 0.257353 0.175254 0.0902086 -0.0146068 -0.119809 -0.165418 -0.183395 -0.223431 -0.273273 -0.329967 -0.39671 -0.484859 -0.573831 -0.638078 -0.685237 -0.349032 -0.283207 -0.233461 -0.207201 -0.179469 -0.115338 -0.0796533 -0.125744 -0.174561 -0.185497 -0.199247 -0.223989 -0.273326 -0.367718 -0.428593 -0.434513 -0.394266 -0.303664 -0.188594 -0.0482633 0.0686154 0.155597 0.221835 0.268083 0.276378 0.245912 0.239347 0.256716 0.31614 0.409212 0.420905 0.368734 0.343147 0.328038 0.270016 0.183453 0.105805 0.0327196 -0.0304523 -0.0861445 -0.137706 -0.185516 -0.228701 -0.275387 -0.34525 -0.426009 -0.51054 -0.586574 -0.633275 -0.656887 -0.365046 -0.280497 -0.226277 -0.208562 -0.206663 -0.201401 -0.211225 -0.252951 -0.289401 -0.297161 -0.306764 -0.32484 -0.365679 -0.450164 -0.496946 -0.481402 -0.428264 -0.337711 -0.226907 -0.0940688 0.0122381 0.0851019 0.141982 0.184281 0.192901 0.167027 0.169751 0.200449 0.253532 0.324215 0.340023 0.31109 0.283207 0.250793 0.204087 0.145736 0.0798557 0.0123103 -0.0272025 -0.0541343 -0.101412 -0.157525 -0.208544 -0.261792 -0.327868 -0.399823 -0.472696 -0.541382 -0.596396 -0.640584 -0.359744 -0.26078 -0.204477 -0.193339 -0.219158 -0.288712 -0.357424 -0.393762 -0.416593 -0.427363 -0.435519 -0.442767 -0.463431 -0.514784 -0.53094 -0.490408 -0.423451 -0.332352 -0.230985 -0.117998 -0.0346298 0.0124112 0.0496044 0.0788359 0.0875322 0.0751588 0.0971616 0.151919 0.196633 0.23216 0.250918 0.252635 0.224409 0.173207 0.137633 0.107839 0.0546491 -0.00798646 -0.037128 -0.0531553 -0.0978752 -0.15657 -0.214207 -0.272787 -0.328619 -0.384785 -0.444279 -0.508013 -0.578536 -0.655083 -0.386794 -0.299965 -0.257448 -0.266141 -0.303023 -0.354023 -0.41346 -0.480966 -0.531518 -0.547973 -0.546476 -0.524154 -0.515901 -0.547381 -0.543141 -0.479688 -0.389376 -0.273438 -0.155319 -0.034328 0.0386267 0.0544968 0.0531967 0.0360243 0.0325845 0.043927 0.077626 0.132589 0.177723 0.213163 0.224929 0.213903 0.174355 0.11177 0.056571 0.00481499 -0.04264 -0.0879782 -0.137002 -0.191137 -0.262371 -0.339039 -0.395078 -0.443229 -0.497753 -0.554663 -0.611389 -0.673374 -0.747586 -0.831942 -0.409118 -0.351119 -0.331078 -0.360354 -0.400839 -0.41313 -0.445942 -0.541609 -0.620475 -0.643195 -0.633639 -0.584533 -0.549426 -0.560444 -0.539953 -0.466667 -0.359707 -0.214919 -0.0759561 0.0556665 0.121066 0.109001 0.0719402 0.0106367 -0.00594526 0.024728 0.0633788 0.109694 0.153435 0.192697 0.191648 0.155373 0.105119 0.0403171 -0.0345057 -0.113821 -0.160346 -0.19287 -0.265069 -0.358115 -0.447555 -0.530407 -0.581036 -0.618635 -0.671752 -0.730749 -0.791308 -0.854888 -0.921948 -0.992355 -0.393997 -0.376103 -0.382158 -0.420567 -0.463116 -0.479552 -0.509829 -0.587953 -0.653313 -0.678419 -0.67235 -0.624874 -0.58195 -0.566307 -0.535586 -0.483986 -0.387393 -0.229801 -0.0855552 0.0386139 0.0951935 0.073537 0.0315292 -0.0293102 -0.0484927 -0.0237457 0.00725476 0.0441152 0.0734777 0.0941065 0.076845 0.0274635 -0.0211319 -0.0727989 -0.1346 -0.201924 -0.252366 -0.295991 -0.362172 -0.437107 -0.49277 -0.538695 -0.583732 -0.627708 -0.672328 -0.722038 -0.792189 -0.86129 -0.904108 -0.928181 -0.351172 -0.386259 -0.423534 -0.463264 -0.504584 -0.549264 -0.588774 -0.616397 -0.639086 -0.664037 -0.670031 -0.644941 -0.608152 -0.561293 -0.525774 -0.521853 -0.456574 -0.296243 -0.156422 -0.0516312 -0.00392741 -0.0213611 -0.0459002 -0.0743266 -0.0890132 -0.0892019 -0.0766825 -0.0524587 -0.0471258 -0.0597394 -0.0973286 -0.155002 -0.193079 -0.21812 -0.243997 -0.273244 -0.332429 -0.405266 -0.445942 -0.463025 -0.445978 -0.421221 -0.459403 -0.521595 -0.552705 -0.585538 -0.67128 -0.749653 -0.753028 -0.701601

